<?xml version="1.0" encoding="UTF-8"?>

<!-- generated on 2022-07-16 19:00:45 by Eclipse SUMO sumo Version 1.14.0
<configuration xmlns:xsi="http://www.w3.org/2001/XMLSchema-instance" xsi:noNamespaceSchemaLocation="http://sumo.dlr.de/xsd/sumoConfiguration.xsd">

    <input>
        <net-file value="C:\Users\gabri\Sumo\2022-07-16-19-00-19\osm.net.xml"/>
        <route-files value="C:\Users\gabri\Sumo\2022-07-16-19-00-19\trips.trips.xml"/>
        <additional-files value="C:\Users\gabri\Sumo\2022-07-16-19-00-19\osm_stops.add.xml"/>
    </input>

    <output>
        <vehroute-output value="C:\Users\gabri\Sumo\2022-07-16-19-00-19\vehroutes.xml"/>
        <stop-output value="C:\Users\gabri\Sumo\2022-07-16-19-00-19\stopinfos.xml"/>
    </output>

    <time>
        <begin value="0"/>
    </time>

    <processing>
        <ignore-route-errors value="true"/>
    </processing>

    <routing>
        <device.rerouting.adaptation-interval value="0"/>
    </routing>

    <report>
        <aggregate-warnings value="5"/>
        <error-log value="C:\Users\gabri\Sumo\2022-07-16-19-00-19\trips.trips.xml.errorlog"/>
        <no-step-log value="true"/>
    </report>

</configuration>
-->

<routes xmlns:xsi="http://www.w3.org/2001/XMLSchema-instance" xsi:noNamespaceSchemaLocation="http://sumo.dlr.de/xsd/routes_file.xsd">
    <vehicle id="0_bus_6/:0" type="pt_bus" depart="15.00" departLane="0" arrival="844.00">
        <route edges="36806394#2 36836085#0 36836085#1 36836085#2 36836086 36836090#0 36836090#1 36836094 37318361#2 32507301#0 32507301#1 -320176572#3 32507299#1 32507299#2 32507299#4 32507299#5 32507299#6 97084818#3 1061041467 1061041466 24442251 293396881 36806476 1062347826 697625114 697625113#0 697625113#1 697625113#3 68286130#2 68286130#3 68286130#4 68286130#5 68286130#6 68286130#7 68286130#8 24443775 31663311#0 31663311#1 24454097#0 24454097#1 24454097#2 24454097#3 24389744 97251502 777252610 1062347825#0 1062347825#1 24161871#0 24161871#1 67624761#2 24094905#1 24094905#2 24094905#3 109372515 574541253 37015405#0 37015405#1 37015405#2 308335486#0 308335486#1 308335486#2 308335486#3 129298446 308178198 823407788 829951745 308178202#0 308178202#1 23795382 35209301 24789912 84690459 240607362 23857969#0 23857969#1 23857969#2 23857969#3 222748808#0 23952134#0 23952134#1 23952134#2 24581836#0 23858004#0 23858004#1 23858004#2 229137174 49577052#2 23854591#0 23854594 153639912#0 49577096 23854473 99752050#1 99752050#2 99752050#4 99752050#5 97111275#0 97111275#2 974959833#0 974959833#2 97111248 571994482 571994481 23951662 23994565 -657200056 -29310670#4 -29310670#2 -29310670#1 -29310670#0 23854200 1062940869#0 1062940869#1 2132486#0 2132486#1 2132486#2 2132486#3 2132486#4 2132486#5 23854157#1 23854157#2 23854157#4 23854157#5 571994486#0 571994486#1 97251488#0 97251488#1 336901263#0 336901263#1 336901263#3 687017025 687017021#1 687017021#2 687017022 687017023 23884317 23884318#1 23884318#2 810788545"/>
        <stop busStop="544346184" duration="30.00"/>
    </vehicle>

    <vehicle id="1_bus_6:0" type="pt_bus" depart="133.00" departLane="0" arrival="956.00">
        <route edges="1062347818 320176569 320176570 292088662#0 292088662#1 292088662#2 292088662#3 292088662#4 24161659#1 85334601 1061041472#0 1061041472#1 85334596 85334603#0 85334603#1 85334603#2 85334603#3 85334603#4 85334603#5 85334603#6 85334603#7 85334603#8 85334603#9 85334603#10 85334603#11 85334603#12 85334603#13 1061041466 24442251 293396881 36806476 1062347826 697625114 697625113#0 697625113#1 697625113#3 68286130#2 68286130#3 68286130#4 68286130#5 68286130#6 68286130#7 68286130#8 24443775 31663311#0 31663311#1 24454097#0 24454097#1 24454097#2 24454097#3 24389744 97251502 777252610 1062347825#0 1062347825#1 24161871#0 24161871#1 67624761#2 24094905#1 24094905#2 24094905#3 109372515 574541253 37015405#0 37015405#1 37015405#2 308335486#0 308335486#1 308335486#2 308335486#3 129298446 308178198 823407788 829951745 308178202#0 308178202#1 23795382 35209301 24789912 84690459 240607362 23857969#0 23857969#1 23857969#2 23857969#3 222748808#0 23952134#0 23952134#1 23952134#2 24581836#0 23858004#0 23858004#1 23858004#2 229137174 49577052#2 23854591#0 23854594 153639912#0 49577096 23854473 99752050#1 99752050#2 99752050#4 99752050#5 97111275#0 97111275#2 974959833#0 974959833#2 97111248 571994482 571994481 23951662 23994565 -657200056 -29310670#4 -29310670#2 -29310670#1 -29310670#0 23854200 1062940869#0 1062940869#1 2132486#0 2132486#1 2132486#2 2132486#3 2132486#4 2132486#5 23854157#1 23854157#2 23854157#4 23854157#5 571994486#0 571994486#1 97251488#0 97251488#1 336901263#0 336901263#1 336901263#3 687017025 687017021#1 687017021#2 687017022 687017023 23884317 23884318#1 23884318#2 810788545"/>
        <stop busStop="544346184" duration="30.00"/>
    </vehicle>

    <vehicle id="2_bus_6:1" type="pt_bus" depart="165.00" departLane="0" arrival="1024.00">
        <route edges="36806394#2 36836085#0 36836085#1 36836085#2 36836086 36836090#0 36836090#1 36836094 37318361#2 32507301#0 32507301#1 -320176572#3 32507299#1 32507299#2 32507299#4 32507299#5 32507299#6 97084818#3 1061041467 1061041466 24442251 293396881 36806476 1062347826 697625114 697625113#0 697625113#1 697625113#3 68286130#2 68286130#3 68286130#4 68286130#5 68286130#6 68286130#7 68286130#8 24443775 31663311#0 31663311#1 24454097#0 24454097#1 24454097#2 24454097#3 24389744 97251502 777252610 1062347825#0 1062347825#1 24161871#0 24161871#1 67624761#2 24094905#1 24094905#2 24094905#3 109372515 574541253 37015405#0 37015405#1 37015405#2 308335486#0 308335486#1 308335486#2 308335486#3 129298446 308178198 823407788 829951745 308178202#0 308178202#1 23795382 35209301 24789912 84690459 240607362 23857969#0 23857969#1 23857969#2 23857969#3 222748808#0 23952134#0 23952134#1 23952134#2 24581836#0 23858004#0 23858004#1 23858004#2 229137174 49577052#2 23854591#0 23854594 153639912#0 49577096 23854473 99752050#1 99752050#2 99752050#4 99752050#5 97111275#0 97111275#2 974959833#0 974959833#2 97111248 571994482 571994481 23951662 23994565 -657200056 -29310670#4 -29310670#2 -29310670#1 -29310670#0 23854200 1062940869#0 1062940869#1 2132486#0 2132486#1 2132486#2 2132486#3 2132486#4 2132486#5 23854157#1 23854157#2 23854157#4 23854157#5 571994486#0 571994486#1 97251488#0 97251488#1 336901263#0 336901263#1 336901263#3 687017025 687017021#1 687017021#2 687017022 687017023 23884317 23884318#1 23884318#2 810788545"/>
        <stop busStop="544346184" duration="30.00"/>
    </vehicle>

    <vehicle id="3_bus_1/:0" type="pt_bus" depart="383.00" departLane="0" arrival="1200.00">
        <route edges="36806394#2 36836085#0 36836085#1 36836085#2 36836086 36836090#0 36836090#1 36836094 37318361#2 32507301#0 32507301#1 -320176572#3 32507299#1 32507299#2 32507299#4 32507299#5 32507299#6 97084818#3 1061041467 1061041466 24442251 293396881 36806476 1062347826 697625114 697625113#0 697625113#1 697625113#3 68286130#2 68286130#3 68286130#4 68286130#5 68286130#6 68286130#7 68286130#8 24443775 31663311#0 31663311#1 24454097#0 24454097#1 24454097#2 24454097#3 24389744 97251502 777252610 1062347825#0 1062347825#1 24161871#0 24161871#1 67624761#2 24094905#1 24094905#2 24094905#3 109372515 574541253 37015405#0 37015405#1 37015405#2 308335486#0 308335486#1 308335486#2 308335486#3 129298446 308178198 823407788 829951745 308178202#0 308178202#1 23795382 35209301 24789912 84690459 240607362 84690453#0 84690461#0 30076096#0 30076096#2 68286127#0 68286127#3 68286127#4 23800071#1 1055608291#0 1055608291#1 31301718#0 31301718#1 31301718#2 72847149 23066740#1 177180084 23066741 689152199 48769827 23795565#1 758183648#1 689085688 406632788#1 406632788#2 -689006850 -292214785 -914173108 1062347824 1062347823 1062940866 43942188 775625754#0 775625754#1 775625754#2 809914198#0 809914198#1 809914198#2 809914198#4 809914198#5 1062940872#0 1062940871 1064844930#1 1064844930#2 1064844930#3 1064844930#4 97251514"/>
        <stop busStop="544346184" duration="30.00"/>
    </vehicle>

</routes>
