<?xml version="1.0" encoding="UTF-8"?>

<!-- generated on 2022-07-16 19:07:42.831982 by gtfs2fcd.py v1_14_0+0002-ebd7f0b131e
  options: -n osm.net.xml <doubleminus>gtfs TT-GTFS.zip <doubleminus>date 20220715 <doubleminus>modes bus <doubleminus>vtype-output pt_vtypes.xml
-->

<fcd-export>
    <timestep time="28800"><vehicle id="0003720522022061120220911" x="11.107395" y="46.113460" until="0" name="Gardolo S.Anna Carpenedi" fareZone="" fareSymbol="" startFare="" speed="20"/></timestep>
    <timestep time="28860"><vehicle id="0003720522022061120220911" x="11.109569" y="46.110834" until="60" name="Gardolo S.Anna" fareZone="" fareSymbol="" startFare="" speed="20"/></timestep>
    <timestep time="28920"><vehicle id="0003720522022061120220911" x="11.111432" y="46.108506" until="120" name="Gardolo Piazza" fareZone="" fareSymbol="" startFare="" speed="20"/></timestep>
    <timestep time="28980"><vehicle id="0003720522022061120220911" x="11.111440" y="46.106679" until="180" name="Gardolo P.Le Neufahrn Nord" fareZone="" fareSymbol="" startFare="" speed="20"/></timestep>
    <timestep time="29040"><vehicle id="0003720522022061120220911" x="11.109068" y="46.106227" until="240" name="Gardolo Svincolo Ss.12" fareZone="" fareSymbol="" startFare="" speed="20"/></timestep>
    <timestep time="29100"><vehicle id="0003720522022061120220911" x="11.110487" y="46.102643" until="300" name="Ss 12 &quot;Paludi&quot;" fareZone="" fareSymbol="" startFare="" speed="20"/></timestep>
    <timestep time="29160"><vehicle id="0003720522022061120220911" x="11.111736" y="46.098985" until="360" name="Ss 12 Canova" fareZone="" fareSymbol="" startFare="" speed="20"/></timestep>
    <timestep time="29280"><vehicle id="0003720522022061120220911" x="11.115388" y="46.091361" until="480" name="Brennero &quot;Bren Center&quot;" fareZone="" fareSymbol="" startFare="" speed="20"/></timestep>
    <timestep time="29340"><vehicle id="0003720522022061120220911" x="11.116524" y="46.089442" until="540" name="Brennero &quot;Magnete&quot;" fareZone="" fareSymbol="" startFare="" speed="20"/></timestep>
    <timestep time="29400"><vehicle id="0003720522022061120220911" x="11.119819" y="46.083721" until="600" name="Brennero Marconi" fareZone="" fareSymbol="" startFare="" speed="20"/></timestep>
    <timestep time="29460"><vehicle id="0003720522022061120220911" x="11.122352" y="46.079301" until="660" name="Brennero &quot;Ex Scalo Filzi&quot;" fareZone="" fareSymbol="" startFare="" speed="20"/></timestep>
    <timestep time="29580"><vehicle id="0003720522022061120220911" x="11.122395" y="46.075602" until="780" name="Segantini Centa" fareZone="" fareSymbol="" startFare="" speed="20"/></timestep>
    <timestep time="29580"><vehicle id="0003720522022061120220911" x="11.121457" y="46.074211" until="780" name="Segantini Dogana" fareZone="" fareSymbol="" startFare="" speed="20"/></timestep>
    <timestep time="29640"><vehicle id="0003720522022061120220911" x="11.119565" y="46.071918" until="840" name="Piazza Dante &quot;Stazione Fs&quot;" fareZone="" fareSymbol="" startFare="" speed="20"/></timestep>
    <timestep time="29760"><vehicle id="0003720522022061120220911" x="11.118638" y="46.068101" until="960" name="Rosmini S.Maria Maggiore" fareZone="" fareSymbol="" startFare="" speed="20"/></timestep>
    <timestep time="29880"><vehicle id="0003720522022061120220911" x="11.120923" y="46.064556" until="1080" name="Travai Al Nuoto / Muse" fareZone="" fareSymbol="" startFare="" speed="20"/></timestep>
    <timestep time="29940"><vehicle id="0003720522022061120220911" x="11.122235" y="46.064779" until="1140" name="Travai Piazza Fiera" fareZone="" fareSymbol="" startFare="" speed="20"/></timestep>
    <timestep time="30000"><vehicle id="0003720522022061120220911" x="11.123668" y="46.062231" until="1200" name="3 Nov. &quot;Centro S.Chiara&quot;" fareZone="" fareSymbol="" startFare="" speed="20"/></timestep>
    <timestep time="30120"><vehicle id="0003720522022061120220911" x="11.126260" y="46.059418" until="1320" name="3 Nov. &quot;Ponte Cavalleggeri&quot;" fareZone="" fareSymbol="" startFare="" speed="20"/></timestep>
    <timestep time="30240"><vehicle id="0003720522022061120220911" x="11.128369" y="46.056511" until="1440" name="Verona Fogazzaro" fareZone="" fareSymbol="" startFare="" speed="20"/></timestep>
    <timestep time="30300"><vehicle id="0003720522022061120220911" x="11.129680" y="46.052915" until="1500" name="Verona Einaudi" fareZone="" fareSymbol="" startFare="" speed="20"/></timestep>
    <timestep time="30300"><vehicle id="0003720522022061120220911" x="11.130386" y="46.050720" until="1500" name="Verona &quot;S.Bartolameo&quot;" fareZone="" fareSymbol="" startFare="" speed="20"/></timestep>
    <timestep time="55320"><vehicle id="0003723092022061120220911" x="11.140549" y="46.041088" until="0" name="Conci &quot;Villazzano 3&quot;" fareZone="" fareSymbol="" startFare="" speed="20"/></timestep>
    <timestep time="55320"><vehicle id="0003723092022061120220911" x="11.140406" y="46.039407" until="0" name="Conci De Riccabona" fareZone="" fareSymbol="" startFare="" speed="20"/></timestep>
    <timestep time="55380"><vehicle id="0003723092022061120220911" x="11.137450" y="46.039884" until="60" name="Conci Ferrovia" fareZone="" fareSymbol="" startFare="" speed="20"/></timestep>
    <timestep time="55440"><vehicle id="0003723092022061120220911" x="11.134132" y="46.038106" until="120" name="Menguzzato Al Casteller" fareZone="" fareSymbol="" startFare="" speed="20"/></timestep>
    <timestep time="55500"><vehicle id="0003723092022061120220911" x="11.132067" y="46.040108" until="180" name="Menguzzato &quot;Centro Civico&quot;" fareZone="" fareSymbol="" startFare="" speed="20"/></timestep>
    <timestep time="55560"><vehicle id="0003723092022061120220911" x="11.131058" y="46.045691" until="240" name="Verona &quot;Big Center&quot;" fareZone="" fareSymbol="" startFare="" speed="20"/></timestep>
    <timestep time="55620"><vehicle id="0003723092022061120220911" x="11.131240" y="46.048049" until="300" name="Verona &quot;Questura&quot;" fareZone="" fareSymbol="" startFare="" speed="20"/></timestep>
    <timestep time="55680"><vehicle id="0003723092022061120220911" x="11.130469" y="46.050944" until="360" name="Verona &quot;S.Bartolameo&quot;" fareZone="" fareSymbol="" startFare="" speed="20"/></timestep>
    <timestep time="55680"><vehicle id="0003723092022061120220911" x="11.129877" y="46.052747" until="360" name="Verona Einaudi" fareZone="" fareSymbol="" startFare="" speed="20"/></timestep>
    <timestep time="55740"><vehicle id="0003723092022061120220911" x="11.128664" y="46.056408" until="420" name="Verona Fogazzaro" fareZone="" fareSymbol="" startFare="" speed="20"/></timestep>
    <timestep time="55860"><vehicle id="0003723092022061120220911" x="11.126667" y="46.059292" until="540" name="3 Nov. &quot;Ponte Cavalleggeri&quot;" fareZone="" fareSymbol="" startFare="" speed="20"/></timestep>
    <timestep time="55980"><vehicle id="0003723092022061120220911" x="11.123928" y="46.062181" until="660" name="3 Nov. &quot;Centro S.Chiara&quot;" fareZone="" fareSymbol="" startFare="" speed="20"/></timestep>
    <timestep time="56040"><vehicle id="0003723092022061120220911" x="11.123268" y="46.065222" until="720" name="Piazza di Fiera" fareZone="" fareSymbol="" startFare="" speed="20"/></timestep>
    <timestep time="56160"><vehicle id="0003723092022061120220911" x="11.126343" y="46.066776" until="840" name="S.Francesco Porta Nuova" fareZone="" fareSymbol="" startFare="" speed="20"/></timestep>
    <timestep time="56340"><vehicle id="0003723092022061120220911" x="11.126018" y="46.071906" until="1020" name="Sanzio &quot;Castello&quot;" fareZone="" fareSymbol="" startFare="" speed="20"/></timestep>
    <timestep time="56460"><vehicle id="0003723092022061120220911" x="11.122647" y="46.072994" until="1140" name="Romagnosi Vannetti" fareZone="" fareSymbol="" startFare="" speed="20"/></timestep>
    <timestep time="56520"><vehicle id="0003723092022061120220911" x="11.119946" y="46.072593" until="1200" name="Piazza Dante &quot;Dogana&quot;" fareZone="" fareSymbol="" startFare="" speed="20"/></timestep>
    <timestep time="83940"><vehicle id="0003723102022061120220911" x="11.140549" y="46.041088" until="0" name="Conci &quot;Villazzano 3&quot;" fareZone="" fareSymbol="" startFare="" speed="20"/></timestep>
    <timestep time="83940"><vehicle id="0003723102022061120220911" x="11.140406" y="46.039407" until="0" name="Conci De Riccabona" fareZone="" fareSymbol="" startFare="" speed="20"/></timestep>
    <timestep time="84000"><vehicle id="0003723102022061120220911" x="11.137450" y="46.039884" until="60" name="Conci Ferrovia" fareZone="" fareSymbol="" startFare="" speed="20"/></timestep>
    <timestep time="84060"><vehicle id="0003723102022061120220911" x="11.134132" y="46.038106" until="120" name="Menguzzato Al Casteller" fareZone="" fareSymbol="" startFare="" speed="20"/></timestep>
    <timestep time="84120"><vehicle id="0003723102022061120220911" x="11.132067" y="46.040108" until="180" name="Menguzzato &quot;Centro Civico&quot;" fareZone="" fareSymbol="" startFare="" speed="20"/></timestep>
    <timestep time="84180"><vehicle id="0003723102022061120220911" x="11.131058" y="46.045691" until="240" name="Verona &quot;Big Center&quot;" fareZone="" fareSymbol="" startFare="" speed="20"/></timestep>
    <timestep time="84240"><vehicle id="0003723102022061120220911" x="11.131240" y="46.048049" until="300" name="Verona &quot;Questura&quot;" fareZone="" fareSymbol="" startFare="" speed="20"/></timestep>
    <timestep time="84300"><vehicle id="0003723102022061120220911" x="11.130469" y="46.050944" until="360" name="Verona &quot;S.Bartolameo&quot;" fareZone="" fareSymbol="" startFare="" speed="20"/></timestep>
    <timestep time="84300"><vehicle id="0003723102022061120220911" x="11.129877" y="46.052747" until="360" name="Verona Einaudi" fareZone="" fareSymbol="" startFare="" speed="20"/></timestep>
    <timestep time="84360"><vehicle id="0003723102022061120220911" x="11.128664" y="46.056408" until="420" name="Verona Fogazzaro" fareZone="" fareSymbol="" startFare="" speed="20"/></timestep>
    <timestep time="84480"><vehicle id="0003723102022061120220911" x="11.126667" y="46.059292" until="540" name="3 Nov. &quot;Ponte Cavalleggeri&quot;" fareZone="" fareSymbol="" startFare="" speed="20"/></timestep>
    <timestep time="84600"><vehicle id="0003723102022061120220911" x="11.123928" y="46.062181" until="660" name="3 Nov. &quot;Centro S.Chiara&quot;" fareZone="" fareSymbol="" startFare="" speed="20"/></timestep>
    <timestep time="84660"><vehicle id="0003723102022061120220911" x="11.123268" y="46.065222" until="720" name="Piazza di Fiera" fareZone="" fareSymbol="" startFare="" speed="20"/></timestep>
    <timestep time="84780"><vehicle id="0003723102022061120220911" x="11.126343" y="46.066776" until="840" name="S.Francesco Porta Nuova" fareZone="" fareSymbol="" startFare="" speed="20"/></timestep>
    <timestep time="84960"><vehicle id="0003723102022061120220911" x="11.126018" y="46.071906" until="1020" name="Sanzio &quot;Castello&quot;" fareZone="" fareSymbol="" startFare="" speed="20"/></timestep>
    <timestep time="85080"><vehicle id="0003723102022061120220911" x="11.122647" y="46.072994" until="1140" name="Romagnosi Vannetti" fareZone="" fareSymbol="" startFare="" speed="20"/></timestep>
    <timestep time="85140"><vehicle id="0003723102022061120220911" x="11.124033" y="46.075665" until="1200" name="Centa Brennero" fareZone="" fareSymbol="" startFare="" speed="20"/></timestep>
    <timestep time="85200"><vehicle id="0003723102022061120220911" x="11.123271" y="46.077970" until="1260" name="Brennero Malvasia" fareZone="" fareSymbol="" startFare="" speed="20"/></timestep>
    <timestep time="85260"><vehicle id="0003723102022061120220911" x="11.122129" y="46.079982" until="1320" name="Brennero &quot;Ex Scalo Filzi&quot;" fareZone="" fareSymbol="" startFare="" speed="20"/></timestep>
    <timestep time="85380"><vehicle id="0003723102022061120220911" x="11.120500" y="46.082902" until="1440" name="Brennero Marconi" fareZone="" fareSymbol="" startFare="" speed="20"/></timestep>
    <timestep time="85500"><vehicle id="0003723102022061120220911" x="11.118444" y="46.086479" until="1560" name="Brennero &quot;Tridente&quot;" fareZone="" fareSymbol="" startFare="" speed="20"/></timestep>
    <timestep time="85560"><vehicle id="0003723102022061120220911" x="11.115588" y="46.091461" until="1620" name="Brennero &quot;Bren Center&quot;" fareZone="" fareSymbol="" startFare="" speed="20"/></timestep>
    <timestep time="85620"><vehicle id="0003723102022061120220911" x="11.116355" y="46.092337" until="1680" name="Zambra &quot;Ist. D'arte Vittoria&quot;" fareZone="" fareSymbol="" startFare="" speed="20"/></timestep>
    <timestep time="85620"><vehicle id="0003723102022061120220911" x="11.117771" y="46.091075" until="1680" name="Zambra &quot;Top Center&quot;" fareZone="" fareSymbol="" startFare="" speed="20"/></timestep>
    <timestep time="111600"><vehicle id="0003723132022061120220911" x="11.144067" y="46.039535" until="0" name="Ss 349 Pozzata" fareZone="" fareSymbol="" startFare="" speed="20"/></timestep>
    <timestep time="111660"><vehicle id="0003723132022061120220911" x="11.146155" y="46.036365" until="60" name="San Rocco Piazza" fareZone="" fareSymbol="" startFare="" speed="20"/></timestep>
    <timestep time="111720"><vehicle id="0003723132022061120220911" x="11.145518" y="46.038542" until="120" name="San Rocco Torricelle" fareZone="" fareSymbol="" startFare="" speed="20"/></timestep>
    <timestep time="111780"><vehicle id="0003723132022061120220911" x="11.142380" y="46.041780" until="180" name="Ss 349 Pozzata" fareZone="" fareSymbol="" startFare="" speed="20"/></timestep>
    <timestep time="111840"><vehicle id="0003723132022061120220911" x="11.140549" y="46.041088" until="240" name="Conci &quot;Villazzano 3&quot;" fareZone="" fareSymbol="" startFare="" speed="20"/></timestep>
    <timestep time="111840"><vehicle id="0003723132022061120220911" x="11.140406" y="46.039407" until="240" name="Conci De Riccabona" fareZone="" fareSymbol="" startFare="" speed="20"/></timestep>
    <timestep time="111900"><vehicle id="0003723132022061120220911" x="11.137450" y="46.039884" until="300" name="Conci Ferrovia" fareZone="" fareSymbol="" startFare="" speed="20"/></timestep>
    <timestep time="111960"><vehicle id="0003723132022061120220911" x="11.134132" y="46.038106" until="360" name="Menguzzato Al Casteller" fareZone="" fareSymbol="" startFare="" speed="20"/></timestep>
    <timestep time="112020"><vehicle id="0003723132022061120220911" x="11.132067" y="46.040108" until="420" name="Menguzzato &quot;Centro Civico&quot;" fareZone="" fareSymbol="" startFare="" speed="20"/></timestep>
    <timestep time="112080"><vehicle id="0003723132022061120220911" x="11.131058" y="46.045691" until="480" name="Verona &quot;Big Center&quot;" fareZone="" fareSymbol="" startFare="" speed="20"/></timestep>
    <timestep time="112140"><vehicle id="0003723132022061120220911" x="11.131240" y="46.048049" until="540" name="Verona &quot;Questura&quot;" fareZone="" fareSymbol="" startFare="" speed="20"/></timestep>
    <timestep time="112200"><vehicle id="0003723132022061120220911" x="11.130469" y="46.050944" until="600" name="Verona &quot;S.Bartolameo&quot;" fareZone="" fareSymbol="" startFare="" speed="20"/></timestep>
    <timestep time="112200"><vehicle id="0003723132022061120220911" x="11.129877" y="46.052747" until="600" name="Verona Einaudi" fareZone="" fareSymbol="" startFare="" speed="20"/></timestep>
    <timestep time="112260"><vehicle id="0003723132022061120220911" x="11.128664" y="46.056408" until="660" name="Verona Fogazzaro" fareZone="" fareSymbol="" startFare="" speed="20"/></timestep>
    <timestep time="112380"><vehicle id="0003723132022061120220911" x="11.126667" y="46.059292" until="780" name="3 Nov. &quot;Ponte Cavalleggeri&quot;" fareZone="" fareSymbol="" startFare="" speed="20"/></timestep>
    <timestep time="112500"><vehicle id="0003723132022061120220911" x="11.123928" y="46.062181" until="900" name="3 Nov. &quot;Centro S.Chiara&quot;" fareZone="" fareSymbol="" startFare="" speed="20"/></timestep>
    <timestep time="112560"><vehicle id="0003723132022061120220911" x="11.123268" y="46.065222" until="960" name="Piazza di Fiera" fareZone="" fareSymbol="" startFare="" speed="20"/></timestep>
    <timestep time="112680"><vehicle id="0003723132022061120220911" x="11.126343" y="46.066776" until="1080" name="S.Francesco Porta Nuova" fareZone="" fareSymbol="" startFare="" speed="20"/></timestep>
    <timestep time="112860"><vehicle id="0003723132022061120220911" x="11.126018" y="46.071906" until="1260" name="Sanzio &quot;Castello&quot;" fareZone="" fareSymbol="" startFare="" speed="20"/></timestep>
    <timestep time="112980"><vehicle id="0003723132022061120220911" x="11.122647" y="46.072994" until="1380" name="Romagnosi Vannetti" fareZone="" fareSymbol="" startFare="" speed="20"/></timestep>
    <timestep time="113040"><vehicle id="0003723132022061120220911" x="11.124033" y="46.075665" until="1440" name="Centa Brennero" fareZone="" fareSymbol="" startFare="" speed="20"/></timestep>
    <timestep time="113100"><vehicle id="0003723132022061120220911" x="11.123271" y="46.077970" until="1500" name="Brennero Malvasia" fareZone="" fareSymbol="" startFare="" speed="20"/></timestep>
    <timestep time="113160"><vehicle id="0003723132022061120220911" x="11.122129" y="46.079982" until="1560" name="Brennero &quot;Ex Scalo Filzi&quot;" fareZone="" fareSymbol="" startFare="" speed="20"/></timestep>
    <timestep time="113280"><vehicle id="0003723132022061120220911" x="11.120500" y="46.082902" until="1680" name="Brennero Marconi" fareZone="" fareSymbol="" startFare="" speed="20"/></timestep>
    <timestep time="113400"><vehicle id="0003723132022061120220911" x="11.118444" y="46.086479" until="1800" name="Brennero &quot;Tridente&quot;" fareZone="" fareSymbol="" startFare="" speed="20"/></timestep>
    <timestep time="113460"><vehicle id="0003723132022061120220911" x="11.115588" y="46.091461" until="1860" name="Brennero &quot;Bren Center&quot;" fareZone="" fareSymbol="" startFare="" speed="20"/></timestep>
    <timestep time="113520"><vehicle id="0003723132022061120220911" x="11.112921" y="46.098861" until="1920" name="Gardolo 4 Nov. Canova" fareZone="" fareSymbol="" startFare="" speed="20"/></timestep>
    <timestep time="113580"><vehicle id="0003723132022061120220911" x="11.112952" y="46.101254" until="1980" name="Gardolo 4 Nov. 2 Giugno" fareZone="" fareSymbol="" startFare="" speed="20"/></timestep>
    <timestep time="113580"><vehicle id="0003723132022061120220911" x="11.112959" y="46.104288" until="1980" name="Gardolo 4 Nov. &quot;Piscina&quot;" fareZone="" fareSymbol="" startFare="" speed="20"/></timestep>
    <timestep time="113640"><vehicle id="0003723132022061120220911" x="11.112342" y="46.106561" until="2040" name="Gardolo 4 Nov. Soprasasso" fareZone="" fareSymbol="" startFare="" speed="20"/></timestep>
    <timestep time="113700"><vehicle id="0003723132022061120220911" x="11.111715" y="46.108340" until="2100" name="Gardolo Piazza" fareZone="" fareSymbol="" startFare="" speed="20"/></timestep>
    <timestep time="113760"><vehicle id="0003723132022061120220911" x="11.109540" y="46.111145" until="2160" name="Gardolo S.Anna" fareZone="" fareSymbol="" startFare="" speed="20"/></timestep>
    <timestep time="113820"><vehicle id="0003723132022061120220911" x="11.107851" y="46.113321" until="2220" name="Gardolo S.Anna Carpenedi" fareZone="" fareSymbol="" startFare="" speed="20"/></timestep>
    <timestep time="187440"><vehicle id="0003723142022061120220911" x="11.140549" y="46.041088" until="0" name="Conci &quot;Villazzano 3&quot;" fareZone="" fareSymbol="" startFare="" speed="20"/></timestep>
    <timestep time="187440"><vehicle id="0003723142022061120220911" x="11.140406" y="46.039407" until="0" name="Conci De Riccabona" fareZone="" fareSymbol="" startFare="" speed="20"/></timestep>
    <timestep time="187500"><vehicle id="0003723142022061120220911" x="11.137450" y="46.039884" until="60" name="Conci Ferrovia" fareZone="" fareSymbol="" startFare="" speed="20"/></timestep>
    <timestep time="187560"><vehicle id="0003723142022061120220911" x="11.134132" y="46.038106" until="120" name="Menguzzato Al Casteller" fareZone="" fareSymbol="" startFare="" speed="20"/></timestep>
    <timestep time="187620"><vehicle id="0003723142022061120220911" x="11.132067" y="46.040108" until="180" name="Menguzzato &quot;Centro Civico&quot;" fareZone="" fareSymbol="" startFare="" speed="20"/></timestep>
    <timestep time="187680"><vehicle id="0003723142022061120220911" x="11.131058" y="46.045691" until="240" name="Verona &quot;Big Center&quot;" fareZone="" fareSymbol="" startFare="" speed="20"/></timestep>
    <timestep time="187740"><vehicle id="0003723142022061120220911" x="11.131240" y="46.048049" until="300" name="Verona &quot;Questura&quot;" fareZone="" fareSymbol="" startFare="" speed="20"/></timestep>
    <timestep time="187800"><vehicle id="0003723142022061120220911" x="11.130469" y="46.050944" until="360" name="Verona &quot;S.Bartolameo&quot;" fareZone="" fareSymbol="" startFare="" speed="20"/></timestep>
    <timestep time="187800"><vehicle id="0003723142022061120220911" x="11.129877" y="46.052747" until="360" name="Verona Einaudi" fareZone="" fareSymbol="" startFare="" speed="20"/></timestep>
    <timestep time="187860"><vehicle id="0003723142022061120220911" x="11.128664" y="46.056408" until="420" name="Verona Fogazzaro" fareZone="" fareSymbol="" startFare="" speed="20"/></timestep>
    <timestep time="187980"><vehicle id="0003723142022061120220911" x="11.126667" y="46.059292" until="540" name="3 Nov. &quot;Ponte Cavalleggeri&quot;" fareZone="" fareSymbol="" startFare="" speed="20"/></timestep>
    <timestep time="188100"><vehicle id="0003723142022061120220911" x="11.123928" y="46.062181" until="660" name="3 Nov. &quot;Centro S.Chiara&quot;" fareZone="" fareSymbol="" startFare="" speed="20"/></timestep>
    <timestep time="188160"><vehicle id="0003723142022061120220911" x="11.123268" y="46.065222" until="720" name="Piazza di Fiera" fareZone="" fareSymbol="" startFare="" speed="20"/></timestep>
    <timestep time="188280"><vehicle id="0003723142022061120220911" x="11.126343" y="46.066776" until="840" name="S.Francesco Porta Nuova" fareZone="" fareSymbol="" startFare="" speed="20"/></timestep>
    <timestep time="188460"><vehicle id="0003723142022061120220911" x="11.126018" y="46.071906" until="1020" name="Sanzio &quot;Castello&quot;" fareZone="" fareSymbol="" startFare="" speed="20"/></timestep>
    <timestep time="188580"><vehicle id="0003723142022061120220911" x="11.122647" y="46.072994" until="1140" name="Romagnosi Vannetti" fareZone="" fareSymbol="" startFare="" speed="20"/></timestep>
    <timestep time="188640"><vehicle id="0003723142022061120220911" x="11.124033" y="46.075665" until="1200" name="Centa Brennero" fareZone="" fareSymbol="" startFare="" speed="20"/></timestep>
    <timestep time="188700"><vehicle id="0003723142022061120220911" x="11.123271" y="46.077970" until="1260" name="Brennero Malvasia" fareZone="" fareSymbol="" startFare="" speed="20"/></timestep>
    <timestep time="188760"><vehicle id="0003723142022061120220911" x="11.122129" y="46.079982" until="1320" name="Brennero &quot;Ex Scalo Filzi&quot;" fareZone="" fareSymbol="" startFare="" speed="20"/></timestep>
    <timestep time="188880"><vehicle id="0003723142022061120220911" x="11.120500" y="46.082902" until="1440" name="Brennero Marconi" fareZone="" fareSymbol="" startFare="" speed="20"/></timestep>
    <timestep time="189000"><vehicle id="0003723142022061120220911" x="11.118444" y="46.086479" until="1560" name="Brennero &quot;Tridente&quot;" fareZone="" fareSymbol="" startFare="" speed="20"/></timestep>
    <timestep time="189060"><vehicle id="0003723142022061120220911" x="11.115588" y="46.091461" until="1620" name="Brennero &quot;Bren Center&quot;" fareZone="" fareSymbol="" startFare="" speed="20"/></timestep>
    <timestep time="189120"><vehicle id="0003723142022061120220911" x="11.112921" y="46.098861" until="1680" name="Gardolo 4 Nov. Canova" fareZone="" fareSymbol="" startFare="" speed="20"/></timestep>
    <timestep time="189180"><vehicle id="0003723142022061120220911" x="11.112952" y="46.101254" until="1740" name="Gardolo 4 Nov. 2 Giugno" fareZone="" fareSymbol="" startFare="" speed="20"/></timestep>
    <timestep time="189180"><vehicle id="0003723142022061120220911" x="11.112959" y="46.104288" until="1740" name="Gardolo 4 Nov. &quot;Piscina&quot;" fareZone="" fareSymbol="" startFare="" speed="20"/></timestep>
    <timestep time="189240"><vehicle id="0003723142022061120220911" x="11.112342" y="46.106561" until="1800" name="Gardolo 4 Nov. Soprasasso" fareZone="" fareSymbol="" startFare="" speed="20"/></timestep>
    <timestep time="189300"><vehicle id="0003723142022061120220911" x="11.111715" y="46.108340" until="1860" name="Gardolo Piazza" fareZone="" fareSymbol="" startFare="" speed="20"/></timestep>
    <timestep time="189360"><vehicle id="0003723142022061120220911" x="11.109540" y="46.111145" until="1920" name="Gardolo S.Anna" fareZone="" fareSymbol="" startFare="" speed="20"/></timestep>
    <timestep time="189420"><vehicle id="0003723142022061120220911" x="11.107851" y="46.113321" until="1980" name="Gardolo S.Anna Carpenedi" fareZone="" fareSymbol="" startFare="" speed="20"/></timestep>
    <timestep time="213000"><vehicle id="0003723152022061120220911" x="11.144067" y="46.039535" until="0" name="Ss 349 Pozzata" fareZone="" fareSymbol="" startFare="" speed="20"/></timestep>
    <timestep time="213060"><vehicle id="0003723152022061120220911" x="11.146155" y="46.036365" until="60" name="San Rocco Piazza" fareZone="" fareSymbol="" startFare="" speed="20"/></timestep>
    <timestep time="213120"><vehicle id="0003723152022061120220911" x="11.145518" y="46.038542" until="120" name="San Rocco Torricelle" fareZone="" fareSymbol="" startFare="" speed="20"/></timestep>
    <timestep time="213180"><vehicle id="0003723152022061120220911" x="11.142380" y="46.041780" until="180" name="Ss 349 Pozzata" fareZone="" fareSymbol="" startFare="" speed="20"/></timestep>
    <timestep time="213240"><vehicle id="0003723152022061120220911" x="11.140549" y="46.041088" until="240" name="Conci &quot;Villazzano 3&quot;" fareZone="" fareSymbol="" startFare="" speed="20"/></timestep>
    <timestep time="213240"><vehicle id="0003723152022061120220911" x="11.140406" y="46.039407" until="240" name="Conci De Riccabona" fareZone="" fareSymbol="" startFare="" speed="20"/></timestep>
    <timestep time="213300"><vehicle id="0003723152022061120220911" x="11.137450" y="46.039884" until="300" name="Conci Ferrovia" fareZone="" fareSymbol="" startFare="" speed="20"/></timestep>
    <timestep time="213360"><vehicle id="0003723152022061120220911" x="11.134132" y="46.038106" until="360" name="Menguzzato Al Casteller" fareZone="" fareSymbol="" startFare="" speed="20"/></timestep>
    <timestep time="213420"><vehicle id="0003723152022061120220911" x="11.132067" y="46.040108" until="420" name="Menguzzato &quot;Centro Civico&quot;" fareZone="" fareSymbol="" startFare="" speed="20"/></timestep>
    <timestep time="213480"><vehicle id="0003723152022061120220911" x="11.131058" y="46.045691" until="480" name="Verona &quot;Big Center&quot;" fareZone="" fareSymbol="" startFare="" speed="20"/></timestep>
    <timestep time="213540"><vehicle id="0003723152022061120220911" x="11.131240" y="46.048049" until="540" name="Verona &quot;Questura&quot;" fareZone="" fareSymbol="" startFare="" speed="20"/></timestep>
    <timestep time="213600"><vehicle id="0003723152022061120220911" x="11.130469" y="46.050944" until="600" name="Verona &quot;S.Bartolameo&quot;" fareZone="" fareSymbol="" startFare="" speed="20"/></timestep>
    <timestep time="213600"><vehicle id="0003723152022061120220911" x="11.129877" y="46.052747" until="600" name="Verona Einaudi" fareZone="" fareSymbol="" startFare="" speed="20"/></timestep>
    <timestep time="213660"><vehicle id="0003723152022061120220911" x="11.128664" y="46.056408" until="660" name="Verona Fogazzaro" fareZone="" fareSymbol="" startFare="" speed="20"/></timestep>
    <timestep time="213780"><vehicle id="0003723152022061120220911" x="11.126667" y="46.059292" until="780" name="3 Nov. &quot;Ponte Cavalleggeri&quot;" fareZone="" fareSymbol="" startFare="" speed="20"/></timestep>
    <timestep time="213900"><vehicle id="0003723152022061120220911" x="11.123928" y="46.062181" until="900" name="3 Nov. &quot;Centro S.Chiara&quot;" fareZone="" fareSymbol="" startFare="" speed="20"/></timestep>
    <timestep time="213960"><vehicle id="0003723152022061120220911" x="11.123268" y="46.065222" until="960" name="Piazza di Fiera" fareZone="" fareSymbol="" startFare="" speed="20"/></timestep>
    <timestep time="214080"><vehicle id="0003723152022061120220911" x="11.126343" y="46.066776" until="1080" name="S.Francesco Porta Nuova" fareZone="" fareSymbol="" startFare="" speed="20"/></timestep>
    <timestep time="214260"><vehicle id="0003723152022061120220911" x="11.126018" y="46.071906" until="1260" name="Sanzio &quot;Castello&quot;" fareZone="" fareSymbol="" startFare="" speed="20"/></timestep>
    <timestep time="214380"><vehicle id="0003723152022061120220911" x="11.122647" y="46.072994" until="1380" name="Romagnosi Vannetti" fareZone="" fareSymbol="" startFare="" speed="20"/></timestep>
    <timestep time="214440"><vehicle id="0003723152022061120220911" x="11.124033" y="46.075665" until="1440" name="Centa Brennero" fareZone="" fareSymbol="" startFare="" speed="20"/></timestep>